<?xml version="1.0" encoding="UTF-8"?>

<!-- generated on 03/07/21 23:32:32 by Eclipse SUMO GUI Version 1.8.0
<configuration xmlns:xsi="http://www.w3.org/2001/XMLSchema-instance" xsi:noNamespaceSchemaLocation="http://sumo.dlr.de/xsd/sumoConfiguration.xsd">

    <input>
        <net-file value="../Onnut/onnut.net.xml"/>
        <route-files value="../Onnut/route03.rou.xml"/>
        <additional-files value="../Onnut/detectors_01.add.xml"/>
    </input>

    <output>
        <tripinfo-output value="tripinfo.xml"/>
    </output>

    <time>
        <begin value="54000"/>
        <end value="68400"/>
    </time>

    <processing>
        <ignore-route-errors value="true"/>
        <time-to-teleport value="-1"/>
    </processing>

    <routing>
        <device.rerouting.adaptation-steps value="180"/>
    </routing>

    <report>
        <verbose value="true"/>
        <duration-log.statistics value="true"/>
        <no-step-log value="true"/>
    </report>

    <traci_server>
        <remote-port value="50522"/>
    </traci_server>

    <gui_only>
        <quit-on-end value="true"/>
        <start value="true"/>
    </gui_only>

</configuration>
-->

<tripinfos xmlns:xsi="http://www.w3.org/2001/XMLSchema-instance" xsi:noNamespaceSchemaLocation="http://sumo.dlr.de/xsd/tripinfo_file.xsd">
    <tripinfo id="54000_6" depart="54006.00" departLane="751455690#0_0" departPos="5.10" departSpeed="0.00" departDelay="0.97" arrival="54090.00" arrivalLane="156261400_2" arrivalPos="32.13" arrivalSpeed="29.05" duration="84.00" routeLength="2152.68" waitingTime="0.00" waitingCount="0" stopTime="0.00" timeLoss="9.61" rerouteNo="0" devices="tripinfo_54000_6" vType="DEFAULT_VEHTYPE" speedFactor="1.05" vaporized=""/>
    <tripinfo id="54000_8" depart="54007.00" departLane="-156261464#3_0" departPos="5.10" departSpeed="0.00" departDelay="0.30" arrival="54092.00" arrivalLane="93727606#0_0" arrivalPos="95.77" arrivalSpeed="12.73" duration="85.00" routeLength="1168.62" waitingTime="0.00" waitingCount="0" stopTime="0.00" timeLoss="25.17" rerouteNo="0" devices="tripinfo_54000_8" vType="DEFAULT_VEHTYPE" speedFactor="0.94" vaporized=""/>
    <tripinfo id="54000_0" depart="54000.00" departLane="692958945#6_0" departPos="5.10" departSpeed="0.00" departDelay="0.00" arrival="54115.00" arrivalLane="824456410#0_0" arrivalPos="115.24" arrivalSpeed="14.44" duration="115.00" routeLength="1256.04" waitingTime="21.00" waitingCount="1" stopTime="0.00" timeLoss="57.80" rerouteNo="0" devices="tripinfo_54000_0" vType="DEFAULT_VEHTYPE" speedFactor="1.06" vaporized=""/>
    <tripinfo id="54000_29" depart="54025.00" departLane="113135482#0_0" departPos="5.10" departSpeed="0.00" departDelay="0.70" arrival="54137.00" arrivalLane="-113135397#12_1" arrivalPos="74.24" arrivalSpeed="12.17" duration="112.00" routeLength="1193.63" waitingTime="2.00" waitingCount="1" stopTime="0.00" timeLoss="17.14" rerouteNo="0" devices="tripinfo_54000_29" vType="DEFAULT_VEHTYPE" speedFactor="0.93" vaporized=""/>
    <tripinfo id="54000_2" depart="54002.00" departLane="-622812955#0_0" departPos="5.10" departSpeed="0.00" departDelay="0.32" arrival="54140.00" arrivalLane="318745834#0_0" arrivalPos="75.38" arrivalSpeed="13.19" duration="138.00" routeLength="1641.55" waitingTime="0.00" waitingCount="0" stopTime="0.00" timeLoss="25.12" rerouteNo="0" devices="tripinfo_54000_2" vType="DEFAULT_VEHTYPE" speedFactor="1.01" vaporized=""/>
    <tripinfo id="54000_84" depart="54071.00" departLane="692958945#6_0" departPos="5.10" departSpeed="0.00" departDelay="0.63" arrival="54142.00" arrivalLane="824116560#3_0" arrivalPos="30.50" arrivalSpeed="15.38" duration="71.00" routeLength="1126.43" waitingTime="0.00" waitingCount="0" stopTime="0.00" timeLoss="28.69" rerouteNo="0" devices="tripinfo_54000_84" vType="DEFAULT_VEHTYPE" speedFactor="1.15" vaporized=""/>
    <tripinfo id="54000_13" depart="54011.00" departLane="751454885#2_0" departPos="5.10" departSpeed="0.00" departDelay="0.11" arrival="54153.00" arrivalLane="-156357492#0_0" arrivalPos="74.73" arrivalSpeed="14.68" duration="142.00" routeLength="2205.16" waitingTime="4.00" waitingCount="1" stopTime="0.00" timeLoss="45.67" rerouteNo="0" devices="tripinfo_54000_13" vType="DEFAULT_VEHTYPE" speedFactor="1.12" vaporized=""/>
    <tripinfo id="54000_37" depart="54031.00" departLane="26575926#0_0" departPos="0.20" departSpeed="0.00" departDelay="0.00" arrival="54160.00" arrivalLane="156515738#3_0" arrivalPos="36.99" arrivalSpeed="16.13" duration="129.00" routeLength="1818.53" waitingTime="1.00" waitingCount="1" stopTime="0.00" timeLoss="50.12" rerouteNo="0" devices="tripinfo_54000_37" vType="DEFAULT_VEHTYPE" speedFactor="1.18" vaporized=""/>
    <tripinfo id="54000_40" depart="54034.00" departLane="336620983#0_0" departPos="5.10" departSpeed="0.00" departDelay="0.49" arrival="54163.00" arrivalLane="450149632#3_0" arrivalPos="803.22" arrivalSpeed="27.41" duration="129.00" routeLength="3334.21" waitingTime="0.00" waitingCount="0" stopTime="0.00" timeLoss="12.17" rerouteNo="0" devices="tripinfo_54000_40" vType="DEFAULT_VEHTYPE" speedFactor="1.03" vaporized=""/>
    <tripinfo id="54000_117" depart="54099.00" departLane="824116538#1_0" departPos="0.20" departSpeed="0.00" departDelay="0.98" arrival="54165.00" arrivalLane="622812953#0_0" arrivalPos="105.65" arrivalSpeed="13.40" duration="66.00" routeLength="861.23" waitingTime="2.00" waitingCount="1" stopTime="0.00" timeLoss="25.68" rerouteNo="0" devices="tripinfo_54000_117" vType="DEFAULT_VEHTYPE" speedFactor="1.00" vaporized=""/>
    <tripinfo id="54000_30" depart="54026.00" departLane="-318706321#1_0" departPos="5.10" departSpeed="0.00" departDelay="0.87" arrival="54170.00" arrivalLane="-93727607#1_0" arrivalPos="124.79" arrivalSpeed="16.34" duration="144.00" routeLength="1809.14" waitingTime="24.00" waitingCount="1" stopTime="0.00" timeLoss="61.28" rerouteNo="0" devices="tripinfo_54000_30" vType="DEFAULT_VEHTYPE" speedFactor="1.18" vaporized=""/>
    <tripinfo id="54000_89" depart="54075.00" departLane="61232401#5_0" departPos="5.10" departSpeed="0.00" departDelay="0.44" arrival="54186.00" arrivalLane="442887014_0" arrivalPos="111.80" arrivalSpeed="14.19" duration="111.00" routeLength="1522.91" waitingTime="4.00" waitingCount="1" stopTime="0.00" timeLoss="28.44" rerouteNo="0" devices="tripinfo_54000_89" vType="DEFAULT_VEHTYPE" speedFactor="1.02" vaporized=""/>
    <tripinfo id="54000_28" depart="54024.00" departLane="-61232401#8_0" departPos="5.10" departSpeed="0.00" departDelay="0.54" arrival="54189.00" arrivalLane="-523236386_0" arrivalPos="49.81" arrivalSpeed="14.62" duration="165.00" routeLength="2146.53" waitingTime="24.00" waitingCount="1" stopTime="0.00" timeLoss="66.94" rerouteNo="0" devices="tripinfo_54000_28" vType="DEFAULT_VEHTYPE" speedFactor="1.13" vaporized=""/>
    <tripinfo id="54000_20" depart="54017.00" departLane="-113135397#6_0" departPos="5.10" departSpeed="0.00" departDelay="0.24" arrival="54191.00" arrivalLane="824116560#0_0" arrivalPos="24.31" arrivalSpeed="12.69" duration="174.00" routeLength="1154.90" waitingTime="87.00" waitingCount="1" stopTime="0.00" timeLoss="103.53" rerouteNo="0" devices="tripinfo_54000_20" vType="DEFAULT_VEHTYPE" speedFactor="1.02" vaporized=""/>
    <tripinfo id="54000_14" depart="54012.00" departLane="-307436704#1_0" departPos="5.10" departSpeed="0.00" departDelay="0.27" arrival="54193.00" arrivalLane="-442905888#1_0" arrivalPos="73.41" arrivalSpeed="12.63" duration="181.00" routeLength="2130.38" waitingTime="25.00" waitingCount="1" stopTime="0.00" timeLoss="60.37" rerouteNo="0" devices="tripinfo_54000_14" vType="DEFAULT_VEHTYPE" speedFactor="0.99" vaporized=""/>
    <tripinfo id="54000_33" depart="54028.00" departLane="-156357489#0_0" departPos="5.10" departSpeed="0.00" departDelay="0.35" arrival="54195.00" arrivalLane="442905889_0" arrivalPos="79.95" arrivalSpeed="15.85" duration="167.00" routeLength="2193.96" waitingTime="0.00" waitingCount="0" stopTime="0.00" timeLoss="48.38" rerouteNo="0" devices="tripinfo_54000_33" vType="DEFAULT_VEHTYPE" speedFactor="1.17" vaporized=""/>
    <tripinfo id="54000_66" depart="54056.00" departLane="693793229#0_0" departPos="5.10" departSpeed="0.00" departDelay="0.71" arrival="54195.00" arrivalLane="750035412#1-AddedOffRampEdge_0" arrivalPos="82.97" arrivalSpeed="23.51" duration="139.00" routeLength="1486.72" waitingTime="3.00" waitingCount="1" stopTime="0.00" timeLoss="22.58" rerouteNo="0" devices="tripinfo_54000_66" vType="DEFAULT_VEHTYPE" speedFactor="0.91" vaporized=""/>
    <tripinfo id="54000_160" depart="54135.00" departLane="-442887017#3_0" departPos="5.10" departSpeed="0.00" departDelay="0.95" arrival="54205.00" arrivalLane="751454885#5_0" arrivalPos="249.17" arrivalSpeed="23.32" duration="70.00" routeLength="752.10" waitingTime="2.00" waitingCount="1" stopTime="0.00" timeLoss="26.51" rerouteNo="0" devices="tripinfo_54000_160" vType="DEFAULT_VEHTYPE" speedFactor="0.88" vaporized=""/>
    <tripinfo id="54000_27" depart="54023.00" departLane="-319148810#0_0" departPos="5.10" departSpeed="0.00" departDelay="0.38" arrival="54206.00" arrivalLane="113135484#0_0" arrivalPos="12.41" arrivalSpeed="7.20" duration="183.00" routeLength="2492.04" waitingTime="0.00" waitingCount="0" stopTime="0.00" timeLoss="34.71" rerouteNo="0" devices="tripinfo_54000_27" vType="DEFAULT_VEHTYPE" speedFactor="0.95" vaporized=""/>
    <tripinfo id="54000_17" depart="54015.00" departLane="-319148811_0" departPos="5.10" departSpeed="0.00" departDelay="0.76" arrival="54207.00" arrivalLane="318750018#1_0" arrivalPos="137.55" arrivalSpeed="12.66" duration="192.00" routeLength="2654.92" waitingTime="1.00" waitingCount="1" stopTime="0.00" timeLoss="32.88" rerouteNo="0" devices="tripinfo_54000_17" vType="DEFAULT_VEHTYPE" speedFactor="0.94" vaporized=""/>
    <tripinfo id="54000_18" depart="54016.00" departLane="336620983#3_0" departPos="5.10" departSpeed="0.00" departDelay="0.92" arrival="54207.00" arrivalLane="-113135474#1_0" arrivalPos="336.55" arrivalSpeed="12.15" duration="191.00" routeLength="2827.31" waitingTime="15.00" waitingCount="1" stopTime="0.00" timeLoss="42.14" rerouteNo="0" devices="tripinfo_54000_18" vType="DEFAULT_VEHTYPE" speedFactor="0.94" vaporized=""/>
    <tripinfo id="54000_22" depart="54019.00" departLane="156591249#0.2206_0" departPos="5.10" departSpeed="0.00" departDelay="0.57" arrival="54214.00" arrivalLane="-442881465_0" arrivalPos="194.68" arrivalSpeed="13.07" duration="195.00" routeLength="2591.60" waitingTime="35.00" waitingCount="1" stopTime="0.00" timeLoss="55.25" rerouteNo="0" devices="tripinfo_54000_22" vType="DEFAULT_VEHTYPE" speedFactor="0.98" vaporized=""/>
    <tripinfo id="54000_81" depart="54069.00" departLane="824456407#3_0" departPos="5.10" departSpeed="0.00" departDelay="1.14" arrival="54221.00" arrivalLane="-622812960_0" arrivalPos="102.83" arrivalSpeed="13.06" duration="152.00" routeLength="1735.08" waitingTime="18.00" waitingCount="1" stopTime="0.00" timeLoss="57.81" rerouteNo="0" devices="tripinfo_54000_81" vType="DEFAULT_VEHTYPE" speedFactor="1.00" vaporized=""/>
    <tripinfo id="54000_90" depart="54076.00" departLane="-318745826_0" departPos="5.10" departSpeed="0.00" departDelay="0.60" arrival="54224.00" arrivalLane="450149632#2_0" arrivalPos="75.34" arrivalSpeed="27.71" duration="148.00" routeLength="2179.24" waitingTime="3.00" waitingCount="1" stopTime="0.00" timeLoss="20.64" rerouteNo="0" devices="tripinfo_54000_90" vType="DEFAULT_VEHTYPE" speedFactor="1.02" vaporized=""/>
    <tripinfo id="54000_11" depart="54010.00" departLane="156357489#1_0" departPos="5.10" departSpeed="0.00" departDelay="0.78" arrival="54231.00" arrivalLane="113135397#3_0" arrivalPos="69.07" arrivalSpeed="14.10" duration="221.00" routeLength="2056.95" waitingTime="1.00" waitingCount="1" stopTime="0.00" timeLoss="60.02" rerouteNo="0" devices="tripinfo_54000_11" vType="DEFAULT_VEHTYPE" speedFactor="1.03" vaporized=""/>
    <tripinfo id="54000_19" depart="54016.00" departLane="156591290#3_0" departPos="5.10" departSpeed="0.00" departDelay="0.08" arrival="54234.00" arrivalLane="-113135484#0_0" arrivalPos="12.41" arrivalSpeed="15.26" duration="218.00" routeLength="2063.95" waitingTime="56.00" waitingCount="1" stopTime="0.00" timeLoss="93.84" rerouteNo="0" devices="tripinfo_54000_19" vType="DEFAULT_VEHTYPE" speedFactor="1.16" vaporized=""/>
    <tripinfo id="54000_31" depart="54026.00" departLane="-622812933_0" departPos="5.10" departSpeed="0.00" departDelay="0.03" arrival="54237.00" arrivalLane="450150578_0" arrivalPos="83.92" arrivalSpeed="15.24" duration="211.00" routeLength="2895.06" waitingTime="0.00" waitingCount="0" stopTime="0.00" timeLoss="52.17" rerouteNo="0" devices="tripinfo_54000_31" vType="DEFAULT_VEHTYPE" speedFactor="1.15" vaporized=""/>
    <tripinfo id="54000_82" depart="54075.00" departLane="-113135397#0_0" departPos="5.10" departSpeed="0.00" departDelay="6.30" arrival="54241.00" arrivalLane="-693789399#0_0" arrivalPos="115.09" arrivalSpeed="13.69" duration="166.00" routeLength="1574.11" waitingTime="46.00" waitingCount="1" stopTime="0.00" timeLoss="72.07" rerouteNo="0" devices="tripinfo_54000_82" vType="DEFAULT_VEHTYPE" speedFactor="1.02" vaporized=""/>
    <tripinfo id="54000_108" depart="54091.00" departLane="-113135397#13_0" departPos="5.10" departSpeed="0.00" departDelay="0.52" arrival="54242.00" arrivalLane="450149632#3_0" arrivalPos="803.22" arrivalSpeed="28.64" duration="151.00" routeLength="2568.61" waitingTime="3.00" waitingCount="1" stopTime="0.00" timeLoss="30.35" rerouteNo="0" devices="tripinfo_54000_108" vType="DEFAULT_VEHTYPE" speedFactor="1.06" vaporized=""/>
    <tripinfo id="54000_78" depart="54066.00" departLane="156591254#1_0" departPos="5.10" departSpeed="0.00" departDelay="0.65" arrival="54246.00" arrivalLane="-156357491#6_0" arrivalPos="220.03" arrivalSpeed="13.37" duration="180.00" routeLength="2424.81" waitingTime="0.00" waitingCount="0" stopTime="0.00" timeLoss="23.38" rerouteNo="0" devices="tripinfo_54000_78" vType="DEFAULT_VEHTYPE" speedFactor="1.01" vaporized=""/>
    <tripinfo id="54000_38" depart="54032.00" departLane="61232401#2_0" departPos="5.10" departSpeed="0.00" departDelay="0.16" arrival="54248.00" arrivalLane="44629574#4_0" arrivalPos="12.19" arrivalSpeed="14.21" duration="216.00" routeLength="2627.51" waitingTime="29.00" waitingCount="2" stopTime="0.00" timeLoss="66.45" rerouteNo="0" devices="tripinfo_54000_38" vType="DEFAULT_VEHTYPE" speedFactor="1.10" vaporized=""/>
    <tripinfo id="54000_44" depart="54037.00" departLane="318745820_0" departPos="5.10" departSpeed="0.00" departDelay="0.14" arrival="54249.00" arrivalLane="156357442#2_0" arrivalPos="63.70" arrivalSpeed="14.25" duration="212.00" routeLength="2428.99" waitingTime="24.00" waitingCount="1" stopTime="0.00" timeLoss="58.74" rerouteNo="0" devices="tripinfo_54000_44" vType="DEFAULT_VEHTYPE" speedFactor="1.04" vaporized=""/>
    <tripinfo id="54000_109" depart="54092.00" departLane="751454884#2_0" departPos="5.10" departSpeed="0.00" departDelay="0.68" arrival="54252.00" arrivalLane="-44572159#2_0" arrivalPos="79.83" arrivalSpeed="13.19" duration="160.00" routeLength="2228.26" waitingTime="0.00" waitingCount="0" stopTime="0.00" timeLoss="35.01" rerouteNo="0" devices="tripinfo_54000_109" vType="DEFAULT_VEHTYPE" speedFactor="0.96" vaporized=""/>
    <tripinfo id="54000_55" depart="54047.00" departLane="318745828#0_0" departPos="5.10" departSpeed="0.00" departDelay="0.92" arrival="54253.00" arrivalLane="710591502#0_0" arrivalPos="38.63" arrivalSpeed="12.08" duration="206.00" routeLength="2460.63" waitingTime="4.00" waitingCount="1" stopTime="0.00" timeLoss="43.60" rerouteNo="0" devices="tripinfo_54000_55" vType="DEFAULT_VEHTYPE" speedFactor="1.00" vaporized=""/>
    <tripinfo id="54000_100" depart="54084.00" departLane="113135397#21_0" departPos="5.10" departSpeed="0.00" departDelay="0.22" arrival="54255.00" arrivalLane="450149632#3_0" arrivalPos="803.22" arrivalSpeed="28.31" duration="171.00" routeLength="3050.94" waitingTime="0.00" waitingCount="0" stopTime="0.00" timeLoss="17.05" rerouteNo="0" devices="tripinfo_54000_100" vType="DEFAULT_VEHTYPE" speedFactor="1.07" vaporized=""/>
    <tripinfo id="54000_121" depart="54102.00" departLane="-113514038#1_0" departPos="5.10" departSpeed="0.00" departDelay="0.63" arrival="54257.00" arrivalLane="824456410#0_0" arrivalPos="115.24" arrivalSpeed="14.92" duration="155.00" routeLength="2068.34" waitingTime="2.00" waitingCount="1" stopTime="0.00" timeLoss="32.12" rerouteNo="0" devices="tripinfo_54000_121" vType="DEFAULT_VEHTYPE" speedFactor="1.10" vaporized=""/>
    <tripinfo id="54000_76" depart="54064.00" departLane="824456407#3_0" departPos="5.10" departSpeed="0.00" departDelay="0.33" arrival="54258.00" arrivalLane="-622812933_0" arrivalPos="38.86" arrivalSpeed="13.74" duration="194.00" routeLength="2161.59" waitingTime="32.00" waitingCount="5" stopTime="0.00" timeLoss="97.93" rerouteNo="0" devices="tripinfo_54000_76" vType="DEFAULT_VEHTYPE" speedFactor="1.03" vaporized=""/>
    <tripinfo id="54000_113" depart="54095.00" departLane="824456407#0_0" departPos="5.10" departSpeed="0.00" departDelay="0.33" arrival="54258.00" arrivalLane="-44572159#2_0" arrivalPos="79.83" arrivalSpeed="13.64" duration="163.00" routeLength="2481.39" waitingTime="0.00" waitingCount="0" stopTime="0.00" timeLoss="30.21" rerouteNo="0" devices="tripinfo_54000_113" vType="DEFAULT_VEHTYPE" speedFactor="1.01" vaporized=""/>
    <tripinfo id="54000_25" depart="54021.00" departLane="624384854_0" departPos="5.10" departSpeed="0.00" departDelay="0.06" arrival="54261.00" arrivalLane="377691430#0_2" arrivalPos="186.89" arrivalSpeed="8.29" duration="240.00" routeLength="2413.93" waitingTime="81.00" waitingCount="1" stopTime="0.00" timeLoss="114.97" rerouteNo="0" devices="tripinfo_54000_25" vType="DEFAULT_VEHTYPE" speedFactor="0.87" vaporized=""/>
    <tripinfo id="54000_94" depart="54079.00" departLane="622812953#0_0" departPos="5.10" departSpeed="0.00" departDelay="0.25" arrival="54267.00" arrivalLane="156261464#5_0" arrivalPos="50.15" arrivalSpeed="15.24" duration="188.00" routeLength="2043.97" waitingTime="17.00" waitingCount="4" stopTime="0.00" timeLoss="99.52" rerouteNo="0" devices="tripinfo_54000_94" vType="DEFAULT_VEHTYPE" speedFactor="1.09" vaporized=""/>
    <tripinfo id="54000_164" depart="54138.00" departLane="514073456#0_0" departPos="5.10" departSpeed="0.00" departDelay="0.60" arrival="54269.00" arrivalLane="450149632#2_1" arrivalPos="75.34" arrivalSpeed="29.19" duration="131.00" routeLength="960.12" waitingTime="63.00" waitingCount="2" stopTime="0.00" timeLoss="94.47" rerouteNo="0" devices="tripinfo_54000_164" vType="DEFAULT_VEHTYPE" speedFactor="1.05" vaporized=""/>
    <tripinfo id="54000_136" depart="54114.00" departLane="113135397#20_0" departPos="5.10" departSpeed="0.00" departDelay="0.06" arrival="54271.00" arrivalLane="710591503#1_0" arrivalPos="23.39" arrivalSpeed="11.98" duration="157.00" routeLength="2379.54" waitingTime="0.00" waitingCount="0" stopTime="0.00" timeLoss="19.84" rerouteNo="0" devices="tripinfo_54000_136" vType="DEFAULT_VEHTYPE" speedFactor="1.12" vaporized=""/>
    <tripinfo id="54000_68" depart="54059.00" departLane="336620983#7_0" departPos="5.10" departSpeed="0.00" departDelay="2.03" arrival="54272.00" arrivalLane="693789447_0" arrivalPos="115.55" arrivalSpeed="13.18" duration="213.00" routeLength="3252.39" waitingTime="17.00" waitingCount="3" stopTime="0.00" timeLoss="65.32" rerouteNo="0" devices="tripinfo_54000_68" vType="DEFAULT_VEHTYPE" speedFactor="1.04" vaporized=""/>
    <tripinfo id="54000_157" depart="54139.00" departLane="824816455_0" departPos="5.10" departSpeed="0.00" departDelay="7.47" arrival="54272.00" arrivalLane="-521480905#3_0" arrivalPos="107.02" arrivalSpeed="17.26" duration="133.00" routeLength="1516.49" waitingTime="0.00" waitingCount="0" stopTime="0.00" timeLoss="24.57" rerouteNo="0" devices="tripinfo_54000_157" vType="DEFAULT_VEHTYPE" speedFactor="1.08" vaporized=""/>
    <tripinfo id="54000_99" depart="54083.00" departLane="318706321#2_0" departPos="5.10" departSpeed="0.00" departDelay="0.06" arrival="54274.00" arrivalLane="156591307#0_0" arrivalPos="285.73" arrivalSpeed="14.53" duration="191.00" routeLength="2952.49" waitingTime="0.00" waitingCount="0" stopTime="0.00" timeLoss="35.35" rerouteNo="0" devices="tripinfo_54000_99" vType="DEFAULT_VEHTYPE" speedFactor="1.10" vaporized=""/>
    <tripinfo id="54000_134" depart="54113.00" departLane="-156357415#3_0" departPos="5.10" departSpeed="0.00" departDelay="0.74" arrival="54274.00" arrivalLane="93727604#2_0" arrivalPos="24.54" arrivalSpeed="16.02" duration="161.00" routeLength="1585.40" waitingTime="35.00" waitingCount="2" stopTime="0.00" timeLoss="100.27" rerouteNo="0" devices="tripinfo_54000_134" vType="DEFAULT_VEHTYPE" speedFactor="1.23" vaporized=""/>
    <tripinfo id="54000_4" depart="54004.00" departLane="-463223680#2_0" departPos="5.10" departSpeed="0.00" departDelay="0.65" arrival="54283.00" arrivalLane="-156357493#7_0" arrivalPos="94.18" arrivalSpeed="14.02" duration="279.00" routeLength="1949.67" waitingTime="127.00" waitingCount="4" stopTime="0.00" timeLoss="186.24" rerouteNo="0" devices="tripinfo_54000_4" vType="DEFAULT_VEHTYPE" speedFactor="1.03" vaporized=""/>
    <tripinfo id="54000_64" depart="54057.00" departLane="751454884#3_0" departPos="5.10" departSpeed="0.00" departDelay="3.38" arrival="54283.00" arrivalLane="-718889435_0" arrivalPos="37.80" arrivalSpeed="12.56" duration="226.00" routeLength="2708.57" waitingTime="20.00" waitingCount="4" stopTime="0.00" timeLoss="87.79" rerouteNo="0" devices="tripinfo_54000_64" vType="DEFAULT_VEHTYPE" speedFactor="0.94" vaporized=""/>
    <tripinfo id="54000_107" depart="54090.00" departLane="-318706321#1_0" departPos="5.10" departSpeed="0.00" departDelay="0.36" arrival="54283.00" arrivalLane="-93727607#1_0" arrivalPos="124.79" arrivalSpeed="14.30" duration="193.00" routeLength="1809.14" waitingTime="48.00" waitingCount="1" stopTime="0.00" timeLoss="98.93" rerouteNo="0" devices="tripinfo_54000_107" vType="DEFAULT_VEHTYPE" speedFactor="1.03" vaporized=""/>
    <tripinfo id="54000_131" depart="54110.00" departLane="-113135397#24_0" departPos="5.10" departSpeed="0.00" departDelay="0.25" arrival="54283.00" arrivalLane="-442905889_0" arrivalPos="79.95" arrivalSpeed="14.43" duration="173.00" routeLength="2259.34" waitingTime="0.00" waitingCount="0" stopTime="0.00" timeLoss="25.04" rerouteNo="0" devices="tripinfo_54000_131" vType="DEFAULT_VEHTYPE" speedFactor="1.07" vaporized=""/>
    <tripinfo id="54000_123" depart="54104.00" departLane="824456409#1_0" departPos="5.10" departSpeed="0.00" departDelay="0.95" arrival="54284.00" arrivalLane="185007810#1_2" arrivalPos="62.84" arrivalSpeed="16.46" duration="180.00" routeLength="1630.89" waitingTime="65.00" waitingCount="3" stopTime="0.00" timeLoss="95.80" rerouteNo="0" devices="tripinfo_54000_123" vType="DEFAULT_VEHTYPE" speedFactor="1.02" vaporized=""/>
    <tripinfo id="54000_49" depart="54042.00" departLane="318745828#5_0" departPos="5.10" departSpeed="0.00" departDelay="0.95" arrival="54285.00" arrivalLane="-93727607#3_0" arrivalPos="67.24" arrivalSpeed="11.57" duration="243.00" routeLength="2391.18" waitingTime="42.00" waitingCount="3" stopTime="0.00" timeLoss="88.94" rerouteNo="0" devices="tripinfo_54000_49" vType="DEFAULT_VEHTYPE" speedFactor="0.85" vaporized=""/>
    <tripinfo id="54000_125" depart="54105.00" departLane="156591249#1_0" departPos="5.10" departSpeed="0.00" departDelay="0.28" arrival="54286.00" arrivalLane="-131467341#1_0" arrivalPos="221.97" arrivalSpeed="18.19" duration="181.00" routeLength="2327.04" waitingTime="35.00" waitingCount="6" stopTime="0.00" timeLoss="90.13" rerouteNo="0" devices="tripinfo_54000_125" vType="DEFAULT_VEHTYPE" speedFactor="1.15" vaporized=""/>
    <tripinfo id="54000_24" depart="54021.00" departLane="336620983#0_0" departPos="5.10" departSpeed="0.00" departDelay="0.89" arrival="54289.00" arrivalLane="156357473#1_0" arrivalPos="39.93" arrivalSpeed="11.39" duration="268.00" routeLength="3907.90" waitingTime="16.00" waitingCount="3" stopTime="0.00" timeLoss="57.00" rerouteNo="0" devices="tripinfo_54000_24" vType="DEFAULT_VEHTYPE" speedFactor="0.83" vaporized=""/>
    <tripinfo id="54000_48" depart="54041.00" departLane="-318706321#1_0" departPos="5.10" departSpeed="0.00" departDelay="0.79" arrival="54290.00" arrivalLane="-318745828#2_0" arrivalPos="460.38" arrivalSpeed="11.53" duration="249.00" routeLength="3133.08" waitingTime="5.00" waitingCount="1" stopTime="0.00" timeLoss="40.61" rerouteNo="0" devices="tripinfo_54000_48" vType="DEFAULT_VEHTYPE" speedFactor="0.88" vaporized=""/>
    <tripinfo id="54000_132" depart="54113.00" departLane="751454885#2_0" departPos="5.10" departSpeed="0.00" departDelay="2.41" arrival="54290.00" arrivalLane="156357491#2_0" arrivalPos="221.55" arrivalSpeed="12.22" duration="177.00" routeLength="1820.73" waitingTime="36.00" waitingCount="4" stopTime="0.00" timeLoss="94.19" rerouteNo="0" devices="tripinfo_54000_132" vType="DEFAULT_VEHTYPE" speedFactor="0.96" vaporized=""/>
    <tripinfo id="54000_190" depart="54160.00" departLane="824456409#1_0" departPos="5.10" departSpeed="0.00" departDelay="0.82" arrival="54290.00" arrivalLane="185007810#1_2" arrivalPos="62.84" arrivalSpeed="14.23" duration="130.00" routeLength="1635.90" waitingTime="14.00" waitingCount="1" stopTime="0.00" timeLoss="33.86" rerouteNo="0" devices="tripinfo_54000_190" vType="DEFAULT_VEHTYPE" speedFactor="0.90" vaporized=""/>
    <tripinfo id="54000_88" depart="54074.00" departLane="156591307#0_0" departPos="5.10" departSpeed="0.00" departDelay="0.27" arrival="54291.00" arrivalLane="751454885#0_0" arrivalPos="51.26" arrivalSpeed="18.33" duration="217.00" routeLength="2030.52" waitingTime="50.00" waitingCount="1" stopTime="0.00" timeLoss="106.78" rerouteNo="0" devices="tripinfo_54000_88" vType="DEFAULT_VEHTYPE" speedFactor="1.01" vaporized=""/>
    <tripinfo id="54000_23" depart="54020.00" departLane="-156515752#0_0" departPos="5.10" departSpeed="0.00" departDelay="0.73" arrival="54294.00" arrivalLane="153225684#4_0" arrivalPos="151.68" arrivalSpeed="19.25" duration="274.00" routeLength="2635.12" waitingTime="68.00" waitingCount="3" stopTime="0.00" timeLoss="126.36" rerouteNo="0" devices="tripinfo_54000_23" vType="DEFAULT_VEHTYPE" speedFactor="0.89" vaporized=""/>
    <tripinfo id="54000_87" depart="54073.00" departLane="113135405#0_0" departPos="5.10" departSpeed="0.00" departDelay="0.11" arrival="54294.00" arrivalLane="185007810#3_2" arrivalPos="113.41" arrivalSpeed="16.53" duration="221.00" routeLength="2768.24" waitingTime="29.00" waitingCount="1" stopTime="0.00" timeLoss="59.72" rerouteNo="0" devices="tripinfo_54000_87" vType="DEFAULT_VEHTYPE" speedFactor="1.04" vaporized=""/>
    <tripinfo id="54000_213" depart="54179.00" departLane="-307436705#2_0" departPos="5.10" departSpeed="0.00" departDelay="0.55" arrival="54294.00" arrivalLane="-156515752#1_0" arrivalPos="76.17" arrivalSpeed="14.51" duration="115.00" routeLength="1318.84" waitingTime="0.00" waitingCount="0" stopTime="0.00" timeLoss="26.00" rerouteNo="0" devices="tripinfo_54000_213" vType="DEFAULT_VEHTYPE" speedFactor="1.10" vaporized=""/>
    <tripinfo id="54000_34" depart="54029.00" departLane="-438807578#0_0" departPos="5.10" departSpeed="0.00" departDelay="0.52" arrival="54295.00" arrivalLane="156261464#10_0" arrivalPos="39.13" arrivalSpeed="11.95" duration="266.00" routeLength="2815.79" waitingTime="51.00" waitingCount="7" stopTime="0.00" timeLoss="127.18" rerouteNo="0" devices="tripinfo_54000_34" vType="DEFAULT_VEHTYPE" speedFactor="0.99" vaporized=""/>
    <tripinfo id="54000_54" depart="54046.00" departLane="-156261464#8_0" departPos="5.10" departSpeed="0.00" departDelay="0.76" arrival="54297.00" arrivalLane="156357422#0_0" arrivalPos="70.78" arrivalSpeed="13.17" duration="251.00" routeLength="2290.64" waitingTime="87.00" waitingCount="4" stopTime="0.00" timeLoss="147.97" rerouteNo="0" devices="tripinfo_54000_54" vType="DEFAULT_VEHTYPE" speedFactor="1.00" vaporized=""/>
    <tripinfo id="54000_79" depart="54067.00" departLane="246969798_0" departPos="5.10" departSpeed="0.00" departDelay="0.81" arrival="54297.00" arrivalLane="-442887015#0_0" arrivalPos="105.53" arrivalSpeed="14.32" duration="230.00" routeLength="2538.80" waitingTime="17.00" waitingCount="2" stopTime="0.00" timeLoss="103.68" rerouteNo="0" devices="tripinfo_54000_79" vType="DEFAULT_VEHTYPE" speedFactor="1.09" vaporized=""/>
    <tripinfo id="54000_86" depart="54073.00" departLane="751454885#0_0" departPos="5.10" departSpeed="0.00" departDelay="0.95" arrival="54299.00" arrivalLane="156357422#0_0" arrivalPos="70.78" arrivalSpeed="13.40" duration="226.00" routeLength="2426.04" waitingTime="84.00" waitingCount="3" stopTime="0.00" timeLoss="123.56" rerouteNo="0" devices="tripinfo_54000_86" vType="DEFAULT_VEHTYPE" speedFactor="1.00" vaporized=""/>
    <tripinfo id="54000_93" depart="54078.00" departLane="185007810#1_0" departPos="5.10" departSpeed="0.00" departDelay="0.09" arrival="54300.00" arrivalLane="-156515738#4_0" arrivalPos="34.76" arrivalSpeed="10.93" duration="222.00" routeLength="2263.46" waitingTime="55.00" waitingCount="2" stopTime="0.00" timeLoss="105.57" rerouteNo="0" devices="tripinfo_54000_93" vType="DEFAULT_VEHTYPE" speedFactor="0.92" vaporized=""/>
    <tripinfo id="54000_154" depart="54130.00" departLane="318745828#7_0" departPos="5.10" departSpeed="0.00" departDelay="0.98" arrival="54300.00" arrivalLane="824116560#0_0" arrivalPos="24.31" arrivalSpeed="11.56" duration="170.00" routeLength="1695.38" waitingTime="28.00" waitingCount="2" stopTime="0.00" timeLoss="83.47" rerouteNo="0" devices="tripinfo_54000_154" vType="DEFAULT_VEHTYPE" speedFactor="1.06" vaporized=""/>